
  ___ ___ ___ _ _ _  
 |   |   |_  | | | | 
 | | | | | . | | | | 
 |__ |  _|___|_____|  21.1.0
 |___|_|             

User:   schinniah@gpu01
Date:   Mon Apr  5 20:40:50 2021
Arch:   x86_64
Pid:    111852
Python: 3.7.7
gpaw:   /home/witsteam1/apps/intel/intelpython3/lib/python3.7/site-packages/gpaw
_gpaw:  /home/witsteam1/apps/intel/intelpython3/lib/python3.7/site-packages/
        _gpaw.cpython-37m-x86_64-linux-gnu.so
ase:    /home/witsteam1/apps/intel/intelpython3/lib/python3.7/site-packages/ase (version 3.21.1)
numpy:  /home/witsteam1/apps/intel/intelpython3/lib/python3.7/site-packages/numpy (version 1.18.5)
scipy:  /home/witsteam1/apps/intel/intelpython3/lib/python3.7/site-packages/scipy (version 1.4.1)
libxc:  4.3.4
units:  Angstrom and eV
cores: 56
OpenMP: False
OMP_NUM_THREADS: 1

Input parameters:
  eigensolver: {name: dav,
                niter: 2}
  gpts: [ 48 168 168]
  kpts: {size: (4, 1, 1)}
  nbands: 120%
  xc: PBE

System changes: positions, numbers, cell, pbc, initial_charges, initial_magmoms 

Initialize ...

Mo-setup:
  name: Molybdenum
  id: 296a29d4664fe6c6f68623909fe0870f
  Z: 42.0
  valence: 14
  core: 28
  charge: 0.0
  file: /home/schinniah/isc21-scc/GPAW/tests/test1/gpaw-setups/gpaw-setups-0.9.20000/Mo.PBE.gz
  compensation charges: gauss, rc=0.38, lmax=2
  cutoffs: 2.16(filt), 1.42(core),
  valence states:
                energy  radius
    4s(2.00)   -64.307   1.238
    5s(1.00)    -4.084   1.238
    4p(6.00)   -38.491   1.296
    5p(0.00)    -1.044   1.296
    4d(5.00)    -3.754   1.296
    *d          23.458   1.296

  Using partial waves for Mo as LCAO basis

S-setup:
  name: Sulfur
  id: ca434db9faa07220b7a1d8cb6886b7a9
  Z: 16.0
  valence: 6
  core: 10
  charge: 0.0
  file: /home/schinniah/isc21-scc/GPAW/tests/test1/gpaw-setups/gpaw-setups-0.9.20000/S.PBE.gz
  compensation charges: gauss, rc=0.24, lmax=2
  cutoffs: 1.77(filt), 1.66(core),
  valence states:
                energy  radius
    3s(2.00)   -17.254   0.974
    3p(4.00)    -7.008   0.979
    *s           9.957   0.974
    *p          20.203   0.979
    *d           0.000   0.900

  Using partial waves for S as LCAO basis

Reference energy: -7910958.745597

Spin-paired calculation

Convergence criteria:
  Maximum total energy change: 0.0005 eV / electron
  Maximum integral of absolute density change: 0.0001 electrons
  Maximum integral of absolute eigenstate change: 4e-08 eV^2
  Maximum number of iterations: 333

Symmetries present (total): 4

  ( 1  0  0)  ( 1  0  0)  (-1  0  0)  (-1  0  0)
  ( 0  1  0)  ( 0 -1  0)  ( 0  1  0)  ( 0 -1  0)
  ( 0  0  1)  ( 0  0 -1)  ( 0  0  1)  ( 0  0 -1)

4 k-points: 4 x 1 x 1 Monkhorst-Pack grid
2 k-points in the irreducible part of the Brillouin zone
       k-points in crystal coordinates                weights
   0:     0.12500000    0.00000000    0.00000000          2/4
   1:     0.37500000    0.00000000    0.00000000          2/4

Wave functions: Uniform real-space grid
  Kinetic energy operator: 6*3+1=19 point O(h^6) finite-difference Laplacian
  ScaLapack parameters: grid=1x1, blocksize=None
  Wavefunction extrapolation:
    Improved wavefunction reuse through dual PAW basis 

  Fermi-Dirac: width=0.1000 eV

Eigensolver
   Davidson(niter=2, smin=None, normalize=True) 

Densities:
  Coarse grid: 48*168*168 grid
  Fine grid: 96*336*336 grid
  Total Charge: 0.000000 

Density mixing:
  Method: separate
  Backend: pulay
  Linear mixing parameter: 0.05
  Mixing with 5 old densities
  Damping of long wave oscillations: 50 

Hamiltonian:
  XC and Coulomb potentials evaluated on a 96*336*336 grid
  Using the PBE Exchange-Correlation functional
  Interpolation: tri-quintic (5. degree polynomial)
  Poisson solver: FastPoissonSolver using
    6*3+1=19 point O(h^6) finite-difference Laplacian stencil;
    FFT axes: [0, 1, 2];
    FST axes: [].
 

XC parameters: PBE with 2 nearest neighbor stencil

Memory estimate:
  Process memory now: 254.54 MiB
  Calculator: 1566.38 MiB
    Density: 34.76 MiB
      Arrays: 9.60 MiB
      Localized functions: 21.47 MiB
      Mixer: 3.69 MiB
    Hamiltonian: 7.83 MiB
      Arrays: 6.28 MiB
      XC: 0.00 MiB
      Poisson: 0.00 MiB
      vbar: 1.55 MiB
    Wavefunctions: 1523.79 MiB
      Arrays psit_nG: 691.03 MiB
      Eigensolver: 828.43 MiB
      Projections: 1.35 MiB
      Projectors: 2.98 MiB

Total number of cores used: 56
Parallelization over k-points: 2
Domain decomposition: 1 x 4 x 7

Number of atoms: 180
Number of atomic orbitals: 1260
Number of bands in calculation: 936
Number of valence electrons: 1560
Bands to converge: occupied

... initialized

Initializing position-dependent things.

Density initialized from atomic densities
Creating initial wave functions:
  936 bands from LCAO basis set

                     .----------------------.  
                    /|                      |  
                   / |                      |  
                  /  |                      |  
                 /   |                      |  
                /    |                      |  
               /     |                      |  
              /      |                      |  
             /       |                      |  
            /        |                      |  
           /         |                      |  
          /          |                      |  
         /           |                      |  
        /            |                      |  
       /             |                      |  
      /              |                      |  
     /        S S    |S S     SS            |  
    /               S|     S       S        |  
   /      S  Mo   SoMo    SoMo   Mo         |  
  /            MoS   | Mo     Moo           |  
 *           S  S    S S     S S            |  
 |       Mo S    Mo S|   Mo S    S          |  
 |         S   S  S Mo S  S MoS    Mo       |  
 |                   |                      |  
 |          Mo     MoS     Mo               |  
 |     S      S Mo S |S Mo S    Mo S        |  
 |      S       SS   | S S       S          |  
 |                   |                      |  
 |     Mo     Mo    MoMo    Mo S   Mo       |  
 |       S S     S S |   SS                 |  
 |                   |                      |  
 |                 SS|    S S     S S       |  
 |     S  Mo  SMoMo  |SMoMo    Mo           |  
 |                   |                      |  
 |   S      S S     S|S      S              |  
 |    Mo  S  MoS  S  MoS  S    S            |  
 |               SMo |  S Mo    SMo         |  
 |                   |                      |  
 |     S SMo   SSMoS |S SMoS                |  
 |          SMo  S SMo   S SMo   S          |  
 |       S    S S    .S-S----S--------------.  
 |   S Mo    SMoo   /SMo      Mo           /   
 |       Mo Mo   MoMo    MoMo             /    
 |        S       S      S               /     
 |      S     SS /   S S     S          /      
 |              /                      /       
 |             /                      /        
 |            /                      /         
 |           /                      /          
 |          /                      /           
 |         /                      /            
 |        /                      /             
 |       /                      /              
 |      /                      /               
 |     /                      /                
 |    /                      /                 
 |   /                      /                  
 |  /                      /                   
 | /                      /                    
 |/                      /                     
 *----------------------*                      

Positions:
   0 Mo     0.000000   25.070500   16.304370    ( 0.0000,  0.0000,  0.0000)
   1 S      1.590000   26.608740   17.387403    ( 0.0000,  0.0000,  0.0000)
   2 S      1.590000   23.436215   17.053957    ( 0.0000,  0.0000,  0.0000)
   3 Mo    -1.590000   24.641455   19.013253    ( 0.0000,  0.0000,  0.0000)
   4 S      0.000000   25.769733   20.518621    ( 0.0000,  0.0000,  0.0000)
   5 S      0.000000   22.855523   19.221131    ( 0.0000,  0.0000,  0.0000)
   6 Mo     3.180000   25.070500   16.304370    ( 0.0000,  0.0000,  0.0000)
   7 S      4.770000   26.608740   17.387403    ( 0.0000,  0.0000,  0.0000)
   8 S      4.770000   23.436215   17.053957    ( 0.0000,  0.0000,  0.0000)
   9 Mo     1.590000   24.641455   19.013253    ( 0.0000,  0.0000,  0.0000)
  10 S      3.180000   25.769733   20.518621    ( 0.0000,  0.0000,  0.0000)
  11 S      3.180000   22.855523   19.221131    ( 0.0000,  0.0000,  0.0000)
  12 Mo     6.360000   25.070500   16.304370    ( 0.0000,  0.0000,  0.0000)
  13 S      7.950000   26.608740   17.387403    ( 0.0000,  0.0000,  0.0000)
  14 S      7.950000   23.436215   17.053957    ( 0.0000,  0.0000,  0.0000)
  15 Mo     4.770000   24.641455   19.013253    ( 0.0000,  0.0000,  0.0000)
  16 S      6.360000   25.769733   20.518621    ( 0.0000,  0.0000,  0.0000)
  17 S      6.360000   22.855523   19.221131    ( 0.0000,  0.0000,  0.0000)
  18 Mo     0.000000   23.396318   21.456972    ( 0.0000,  0.0000,  0.0000)
  19 S      1.590000   24.004190   23.237319    ( 0.0000,  0.0000,  0.0000)
  20 S      1.590000   21.633558   21.102792    ( 0.0000,  0.0000,  0.0000)
  21 Mo    -1.590000   21.456972   23.396318    ( 0.0000,  0.0000,  0.0000)
  22 S      0.000000   21.484935   25.277371    ( 0.0000,  0.0000,  0.0000)
  23 S      0.000000   19.889935   22.514750    ( 0.0000,  0.0000,  0.0000)
  24 Mo     3.180000   23.396318   21.456972    ( 0.0000,  0.0000,  0.0000)
  25 S      4.770000   24.004190   23.237319    ( 0.0000,  0.0000,  0.0000)
  26 S      4.770000   21.633558   21.102792    ( 0.0000,  0.0000,  0.0000)
  27 Mo     1.590000   21.456972   23.396318    ( 0.0000,  0.0000,  0.0000)
  28 S      3.180000   21.484935   25.277371    ( 0.0000,  0.0000,  0.0000)
  29 S      3.180000   19.889935   22.514750    ( 0.0000,  0.0000,  0.0000)
  30 Mo     6.360000   23.396318   21.456972    ( 0.0000,  0.0000,  0.0000)
  31 S      7.950000   24.004190   23.237319    ( 0.0000,  0.0000,  0.0000)
  32 S      7.950000   21.633558   21.102792    ( 0.0000,  0.0000,  0.0000)
  33 Mo     4.770000   21.456972   23.396318    ( 0.0000,  0.0000,  0.0000)
  34 S      6.360000   21.484935   25.277371    ( 0.0000,  0.0000,  0.0000)
  35 S      6.360000   19.889935   22.514750    ( 0.0000,  0.0000,  0.0000)
  36 Mo     0.000000   19.013253   24.641455    ( 0.0000,  0.0000,  0.0000)
  37 S      1.590000   18.458570   26.439084    ( 0.0000,  0.0000,  0.0000)
  38 S      1.590000   17.795332   23.318793    ( 0.0000,  0.0000,  0.0000)
  39 Mo    -1.590000   16.304370   25.070500    ( 0.0000,  0.0000,  0.0000)
  40 S      0.000000   15.221337   26.608740    ( 0.0000,  0.0000,  0.0000)
  41 S      0.000000   15.554783   23.436215    ( 0.0000,  0.0000,  0.0000)
  42 Mo     3.180000   19.013253   24.641455    ( 0.0000,  0.0000,  0.0000)
  43 S      4.770000   18.458570   26.439084    ( 0.0000,  0.0000,  0.0000)
  44 S      4.770000   17.795332   23.318793    ( 0.0000,  0.0000,  0.0000)
  45 Mo     1.590000   16.304370   25.070500    ( 0.0000,  0.0000,  0.0000)
  46 S      3.180000   15.221337   26.608740    ( 0.0000,  0.0000,  0.0000)
  47 S      3.180000   15.554783   23.436215    ( 0.0000,  0.0000,  0.0000)
  48 Mo     6.360000   19.013253   24.641455    ( 0.0000,  0.0000,  0.0000)
  49 S      7.950000   18.458570   26.439084    ( 0.0000,  0.0000,  0.0000)
  50 S      7.950000   17.795332   23.318793    ( 0.0000,  0.0000,  0.0000)
  51 Mo     4.770000   16.304370   25.070500    ( 0.0000,  0.0000,  0.0000)
  52 S      6.360000   15.221337   26.608740    ( 0.0000,  0.0000,  0.0000)
  53 S      6.360000   15.554783   23.436215    ( 0.0000,  0.0000,  0.0000)
  54 Mo     0.000000   13.595487   24.641455    ( 0.0000,  0.0000,  0.0000)
  55 S      1.590000   12.090119   25.769733    ( 0.0000,  0.0000,  0.0000)
  56 S      1.590000   13.387609   22.855523    ( 0.0000,  0.0000,  0.0000)
  57 Mo    -1.590000   11.151768   23.396318    ( 0.0000,  0.0000,  0.0000)
  58 S      0.000000    9.371421   24.004190    ( 0.0000,  0.0000,  0.0000)
  59 S      0.000000   11.505948   21.633558    ( 0.0000,  0.0000,  0.0000)
  60 Mo     3.180000   13.595487   24.641455    ( 0.0000,  0.0000,  0.0000)
  61 S      4.770000   12.090119   25.769733    ( 0.0000,  0.0000,  0.0000)
  62 S      4.770000   13.387609   22.855523    ( 0.0000,  0.0000,  0.0000)
  63 Mo     1.590000   11.151768   23.396318    ( 0.0000,  0.0000,  0.0000)
  64 S      3.180000    9.371421   24.004190    ( 0.0000,  0.0000,  0.0000)
  65 S      3.180000   11.505948   21.633558    ( 0.0000,  0.0000,  0.0000)
  66 Mo     6.360000   13.595487   24.641455    ( 0.0000,  0.0000,  0.0000)
  67 S      7.950000   12.090119   25.769733    ( 0.0000,  0.0000,  0.0000)
  68 S      7.950000   13.387609   22.855523    ( 0.0000,  0.0000,  0.0000)
  69 Mo     4.770000   11.151768   23.396318    ( 0.0000,  0.0000,  0.0000)
  70 S      6.360000    9.371421   24.004190    ( 0.0000,  0.0000,  0.0000)
  71 S      6.360000   11.505948   21.633558    ( 0.0000,  0.0000,  0.0000)
  72 Mo     0.000000    9.212422   21.456972    ( 0.0000,  0.0000,  0.0000)
  73 S      1.590000    7.331369   21.484935    ( 0.0000,  0.0000,  0.0000)
  74 S      1.590000   10.093990   19.889935    ( 0.0000,  0.0000,  0.0000)
  75 Mo    -1.590000    7.967286   19.013253    ( 0.0000,  0.0000,  0.0000)
  76 S      0.000000    6.169656   18.458570    ( 0.0000,  0.0000,  0.0000)
  77 S      0.000000    9.289947   17.795332    ( 0.0000,  0.0000,  0.0000)
  78 Mo     3.180000    9.212422   21.456972    ( 0.0000,  0.0000,  0.0000)
  79 S      4.770000    7.331369   21.484935    ( 0.0000,  0.0000,  0.0000)
  80 S      4.770000   10.093990   19.889935    ( 0.0000,  0.0000,  0.0000)
  81 Mo     1.590000    7.967286   19.013253    ( 0.0000,  0.0000,  0.0000)
  82 S      3.180000    6.169656   18.458570    ( 0.0000,  0.0000,  0.0000)
  83 S      3.180000    9.289947   17.795332    ( 0.0000,  0.0000,  0.0000)
  84 Mo     6.360000    9.212422   21.456972    ( 0.0000,  0.0000,  0.0000)
  85 S      7.950000    7.331369   21.484935    ( 0.0000,  0.0000,  0.0000)
  86 S      7.950000   10.093990   19.889935    ( 0.0000,  0.0000,  0.0000)
  87 Mo     4.770000    7.967286   19.013253    ( 0.0000,  0.0000,  0.0000)
  88 S      6.360000    6.169656   18.458570    ( 0.0000,  0.0000,  0.0000)
  89 S      6.360000    9.289947   17.795332    ( 0.0000,  0.0000,  0.0000)
  90 Mo     0.000000    7.538241   16.304370    ( 0.0000,  0.0000,  0.0000)
  91 S      1.590000    6.000000   15.221337    ( 0.0000,  0.0000,  0.0000)
  92 S      1.590000    9.172525   15.554783    ( 0.0000,  0.0000,  0.0000)
  93 Mo    -1.590000    7.967286   13.595487    ( 0.0000,  0.0000,  0.0000)
  94 S      0.000000    6.839007   12.090119    ( 0.0000,  0.0000,  0.0000)
  95 S      0.000000    9.753217   13.387609    ( 0.0000,  0.0000,  0.0000)
  96 Mo     3.180000    7.538241   16.304370    ( 0.0000,  0.0000,  0.0000)
  97 S      4.770000    6.000000   15.221337    ( 0.0000,  0.0000,  0.0000)
  98 S      4.770000    9.172525   15.554783    ( 0.0000,  0.0000,  0.0000)
  99 Mo     1.590000    7.967286   13.595487    ( 0.0000,  0.0000,  0.0000)
 100 S      3.180000    6.839007   12.090119    ( 0.0000,  0.0000,  0.0000)
 101 S      3.180000    9.753217   13.387609    ( 0.0000,  0.0000,  0.0000)
 102 Mo     6.360000    7.538241   16.304370    ( 0.0000,  0.0000,  0.0000)
 103 S      7.950000    6.000000   15.221337    ( 0.0000,  0.0000,  0.0000)
 104 S      7.950000    9.172525   15.554783    ( 0.0000,  0.0000,  0.0000)
 105 Mo     4.770000    7.967286   13.595487    ( 0.0000,  0.0000,  0.0000)
 106 S      6.360000    6.839007   12.090119    ( 0.0000,  0.0000,  0.0000)
 107 S      6.360000    9.753217   13.387609    ( 0.0000,  0.0000,  0.0000)
 108 Mo     0.000000    9.212422   11.151768    ( 0.0000,  0.0000,  0.0000)
 109 S      1.590000    8.604550    9.371421    ( 0.0000,  0.0000,  0.0000)
 110 S      1.590000   10.975182   11.505948    ( 0.0000,  0.0000,  0.0000)
 111 Mo    -1.590000   11.151768    9.212422    ( 0.0000,  0.0000,  0.0000)
 112 S      0.000000   11.123805    7.331369    ( 0.0000,  0.0000,  0.0000)
 113 S      0.000000   12.718805   10.093990    ( 0.0000,  0.0000,  0.0000)
 114 Mo     3.180000    9.212422   11.151768    ( 0.0000,  0.0000,  0.0000)
 115 S      4.770000    8.604550    9.371421    ( 0.0000,  0.0000,  0.0000)
 116 S      4.770000   10.975182   11.505948    ( 0.0000,  0.0000,  0.0000)
 117 Mo     1.590000   11.151768    9.212422    ( 0.0000,  0.0000,  0.0000)
 118 S      3.180000   11.123805    7.331369    ( 0.0000,  0.0000,  0.0000)
 119 S      3.180000   12.718805   10.093990    ( 0.0000,  0.0000,  0.0000)
 120 Mo     6.360000    9.212422   11.151768    ( 0.0000,  0.0000,  0.0000)
 121 S      7.950000    8.604550    9.371421    ( 0.0000,  0.0000,  0.0000)
 122 S      7.950000   10.975182   11.505948    ( 0.0000,  0.0000,  0.0000)
 123 Mo     4.770000   11.151768    9.212422    ( 0.0000,  0.0000,  0.0000)
 124 S      6.360000   11.123805    7.331369    ( 0.0000,  0.0000,  0.0000)
 125 S      6.360000   12.718805   10.093990    ( 0.0000,  0.0000,  0.0000)
 126 Mo     0.000000   13.595487    7.967286    ( 0.0000,  0.0000,  0.0000)
 127 S      1.590000   14.150170    6.169656    ( 0.0000,  0.0000,  0.0000)
 128 S      1.590000   14.813408    9.289947    ( 0.0000,  0.0000,  0.0000)
 129 Mo    -1.590000   16.304370    7.538241    ( 0.0000,  0.0000,  0.0000)
 130 S      0.000000   17.387403    6.000000    ( 0.0000,  0.0000,  0.0000)
 131 S      0.000000   17.053957    9.172525    ( 0.0000,  0.0000,  0.0000)
 132 Mo     3.180000   13.595487    7.967286    ( 0.0000,  0.0000,  0.0000)
 133 S      4.770000   14.150170    6.169656    ( 0.0000,  0.0000,  0.0000)
 134 S      4.770000   14.813408    9.289947    ( 0.0000,  0.0000,  0.0000)
 135 Mo     1.590000   16.304370    7.538241    ( 0.0000,  0.0000,  0.0000)
 136 S      3.180000   17.387403    6.000000    ( 0.0000,  0.0000,  0.0000)
 137 S      3.180000   17.053957    9.172525    ( 0.0000,  0.0000,  0.0000)
 138 Mo     6.360000   13.595487    7.967286    ( 0.0000,  0.0000,  0.0000)
 139 S      7.950000   14.150170    6.169656    ( 0.0000,  0.0000,  0.0000)
 140 S      7.950000   14.813408    9.289947    ( 0.0000,  0.0000,  0.0000)
 141 Mo     4.770000   16.304370    7.538241    ( 0.0000,  0.0000,  0.0000)
 142 S      6.360000   17.387403    6.000000    ( 0.0000,  0.0000,  0.0000)
 143 S      6.360000   17.053957    9.172525    ( 0.0000,  0.0000,  0.0000)
 144 Mo     0.000000   19.013253    7.967286    ( 0.0000,  0.0000,  0.0000)
 145 S      1.590000   20.518621    6.839007    ( 0.0000,  0.0000,  0.0000)
 146 S      1.590000   19.221131    9.753217    ( 0.0000,  0.0000,  0.0000)
 147 Mo    -1.590000   21.456972    9.212422    ( 0.0000,  0.0000,  0.0000)
 148 S      0.000000   23.237319    8.604550    ( 0.0000,  0.0000,  0.0000)
 149 S      0.000000   21.102792   10.975182    ( 0.0000,  0.0000,  0.0000)
 150 Mo     3.180000   19.013253    7.967286    ( 0.0000,  0.0000,  0.0000)
 151 S      4.770000   20.518621    6.839007    ( 0.0000,  0.0000,  0.0000)
 152 S      4.770000   19.221131    9.753217    ( 0.0000,  0.0000,  0.0000)
 153 Mo     1.590000   21.456972    9.212422    ( 0.0000,  0.0000,  0.0000)
 154 S      3.180000   23.237319    8.604550    ( 0.0000,  0.0000,  0.0000)
 155 S      3.180000   21.102792   10.975182    ( 0.0000,  0.0000,  0.0000)
 156 Mo     6.360000   19.013253    7.967286    ( 0.0000,  0.0000,  0.0000)
 157 S      7.950000   20.518621    6.839007    ( 0.0000,  0.0000,  0.0000)
 158 S      7.950000   19.221131    9.753217    ( 0.0000,  0.0000,  0.0000)
 159 Mo     4.770000   21.456972    9.212422    ( 0.0000,  0.0000,  0.0000)
 160 S      6.360000   23.237319    8.604550    ( 0.0000,  0.0000,  0.0000)
 161 S      6.360000   21.102792   10.975182    ( 0.0000,  0.0000,  0.0000)
 162 Mo     0.000000   23.396318   11.151768    ( 0.0000,  0.0000,  0.0000)
 163 S      1.590000   25.277371   11.123805    ( 0.0000,  0.0000,  0.0000)
 164 S      1.590000   22.514750   12.718805    ( 0.0000,  0.0000,  0.0000)
 165 Mo    -1.590000   24.641455   13.595487    ( 0.0000,  0.0000,  0.0000)
 166 S      0.000000   26.439084   14.150170    ( 0.0000,  0.0000,  0.0000)
 167 S      0.000000   23.318793   14.813408    ( 0.0000,  0.0000,  0.0000)
 168 Mo     3.180000   23.396318   11.151768    ( 0.0000,  0.0000,  0.0000)
 169 S      4.770000   25.277371   11.123805    ( 0.0000,  0.0000,  0.0000)
 170 S      4.770000   22.514750   12.718805    ( 0.0000,  0.0000,  0.0000)
 171 Mo     1.590000   24.641455   13.595487    ( 0.0000,  0.0000,  0.0000)
 172 S      3.180000   26.439084   14.150170    ( 0.0000,  0.0000,  0.0000)
 173 S      3.180000   23.318793   14.813408    ( 0.0000,  0.0000,  0.0000)
 174 Mo     6.360000   23.396318   11.151768    ( 0.0000,  0.0000,  0.0000)
 175 S      7.950000   25.277371   11.123805    ( 0.0000,  0.0000,  0.0000)
 176 S      7.950000   22.514750   12.718805    ( 0.0000,  0.0000,  0.0000)
 177 Mo     4.770000   24.641455   13.595487    ( 0.0000,  0.0000,  0.0000)
 178 S      6.360000   26.439084   14.150170    ( 0.0000,  0.0000,  0.0000)
 179 S      6.360000   23.318793   14.813408    ( 0.0000,  0.0000,  0.0000)

Unit cell:
           periodic     x           y           z      points  spacing
  1. axis:    yes    9.540000    0.000000    0.000000    48     0.1988
  2. axis:    yes    0.000000   32.608740    0.000000   168     0.1941
  3. axis:    yes    0.000000    0.000000   32.608740   168     0.1941

  Lengths:   9.540000  32.608740  32.608740
  Angles:   90.000000  90.000000  90.000000

Effective grid spacing dv^(1/3) = 0.1956

                     log10-error:    total        iterations:
           time      wfs    density  energy       poisson
iter:   1  20:46:17                -1364.176538    1      
iter:   2  20:50:18  +0.28  -1.11  -1345.379999    1      
iter:   3  20:54:18  +0.19  -1.16  -1300.781483    1      
iter:   4  20:58:19  -0.15  -1.31  -1293.954151    1      
iter:   5  21:02:19  -0.24  -1.40  -1289.657727    1      
iter:   6  21:06:20  -0.16  -1.64  -1300.875230    1      
iter:   7  21:10:20  -0.81  -1.65  -1296.692227    1      
iter:   8  21:14:21  -0.88  -1.69  -1300.707700    1      
iter:   9  21:18:21  -1.56  -1.60  -1293.660165    1      
iter:  10  21:22:22  -1.11  -1.77  -1287.324811    1      
iter:  11  21:26:22  -1.71  -2.25  -1287.621182    1      
iter:  12  21:30:23  -1.72  -2.27  -1288.325903    1      
iter:  13  21:34:24  -1.94  -2.19  -1287.574835    1      
iter:  14  21:38:24  -1.89  -2.40  -1287.242007    1      
iter:  15  21:42:25  -2.07  -2.83  -1287.236915    1      
iter:  16  21:46:25  -2.14  -3.08  -1287.268663    1      
iter:  17  21:50:26  -3.02  -3.04  -1287.268724    1      
iter:  18  21:54:27  -3.32  -3.28  -1287.270708    1      
iter:  19  21:58:27  -3.50  -3.35  -1287.272674    1      
iter:  20  22:02:28  -3.81  -3.46  -1287.273266    1      
iter:  21  22:06:29  -4.18  -3.73  -1287.273533    1      
iter:  22  22:10:30  -4.24  -3.74  -1287.273657    1      
iter:  23  22:14:32  -4.85  -3.78  -1287.273814    1      
iter:  24  22:18:33  -5.14  -3.84  -1287.273739    1      
iter:  25  22:22:34  -5.28  -3.95  -1287.273692    1      
iter:  26  22:26:35  -5.43  -4.06  -1287.273671    1      
iter:  27  22:30:37  -5.59  -4.16  -1287.273671    1      
iter:  28  22:34:38  -5.68  -4.21  -1287.273673    1      
iter:  29  22:38:40  -6.03  -4.28  -1287.273673    1      
iter:  30  22:42:41  -6.11  -4.35  -1287.273677    1      
iter:  31  22:46:41  -6.55  -4.53  -1287.273666    1      
iter:  32  22:50:41  -6.36  -4.75  -1287.273666    1      
iter:  33  22:54:42  -7.03  -4.90  -1287.273665    1      
iter:  34  22:58:43  -6.88  -4.87  -1287.273664    1      
iter:  35  23:02:43  -7.29  -5.13  -1287.273664    1      
iter:  36  23:06:44  -7.85  -5.14  -1287.273664    1      

Converged after 36 iterations.

Dipole moment: (-130.777820, 0.000004, 0.000004) |e|*Ang

Energy contributions relative to reference atoms: (reference = -7910958.745597)

Kinetic:        -78.174703
Potential:     -284.257697
External:        +0.000000
XC:            -929.955694
Entropy (-ST):   -0.007492
Local:           +5.118177
--------------------------
Free energy:   -1287.277410
Extrapolated:  -1287.273664

Showing all kpts
 Kpt  Band  Eigenvalues  Occupancy
  0   778     -1.68173    0.99977
  0   779     -1.63864    0.99964
  0   780     -0.04151    0.00032
  0   781     -0.01693    0.00025

  1   778     -1.65473    0.99969
  1   779     -1.59972    0.99947
  1   780      0.09379    0.00008
  1   781      0.09380    0.00008


Fermi level: -0.84532

Gap: 1.558 eV
Transition (v -> c):
  (s=0, k=1, n=779, [0.38, 0.00, 0.00]) -> (s=0, k=0, n=780, [0.12, 0.00, 0.00])

Forces in eV/Ang:
  0 Mo    0.00000    0.99988    0.41389
  1 S     0.00000   -0.95868    0.12126
  2 S     0.00000    0.36692   -0.75567
  3 Mo   -0.00000    0.86412    0.72459
  4 S     0.00000   -0.97060   -0.16598
  5 S     0.00000    0.57748   -0.61583
  6 Mo    0.00000    0.99988    0.41389
  7 S     0.00000   -0.95868    0.12126
  8 S     0.00000    0.36692   -0.75567
  9 Mo    0.00000    0.86412    0.72459
 10 S    -0.00000   -0.97060   -0.16598
 11 S     0.00000    0.57748   -0.61583
 12 Mo   -0.00000    0.99988    0.41389
 13 S    -0.00000   -0.95868    0.12126
 14 S    -0.00000    0.36692   -0.75567
 15 Mo    0.00000    0.86412    0.72459
 16 S     0.00000   -0.97060   -0.16598
 17 S    -0.00000    0.57748   -0.61583
 18 Mo    0.00000    0.58066    0.93020
 19 S    -0.00000   -0.79932   -0.49490
 20 S     0.00000    0.78382   -0.43845
 21 Mo   -0.00000    0.26085    1.06713
 22 S     0.00000   -0.59012   -0.74167
 23 S     0.00000    0.72016   -0.14565
 24 Mo    0.00000    0.58066    0.93020
 25 S     0.00000   -0.79932   -0.49490
 26 S     0.00000    0.78382   -0.43845
 27 Mo    0.00000    0.26085    1.06713
 28 S     0.00000   -0.59012   -0.74167
 29 S    -0.00000    0.72016   -0.14565
 30 Mo   -0.00000    0.58066    0.93020
 31 S     0.00000   -0.79932   -0.49490
 32 S    -0.00000    0.78382   -0.43845
 33 Mo   -0.00000    0.26085    1.06713
 34 S    -0.00000   -0.59012   -0.74167
 35 S     0.00000    0.72016   -0.14565
 36 Mo    0.00000   -0.06175    1.11935
 37 S     0.00000   -0.42837   -0.94417
 38 S     0.00000    0.78349    0.09477
 39 Mo    0.00000   -0.41389    0.99988
 40 S     0.00000   -0.12126   -0.95868
 41 S     0.00000    0.75567    0.36692
 42 Mo    0.00000   -0.06175    1.11935
 43 S     0.00000   -0.42837   -0.94417
 44 S     0.00000    0.78349    0.09477
 45 Mo   -0.00000   -0.41389    0.99988
 46 S     0.00000   -0.12126   -0.95868
 47 S    -0.00000    0.75567    0.36692
 48 Mo   -0.00000   -0.06175    1.11935
 49 S    -0.00000   -0.42837   -0.94417
 50 S    -0.00000    0.78349    0.09477
 51 Mo   -0.00000   -0.41389    0.99988
 52 S    -0.00000   -0.12126   -0.95868
 53 S     0.00000    0.75567    0.36692
 54 Mo    0.00000   -0.72459    0.86412
 55 S     0.00000    0.16598   -0.97060
 56 S     0.00000    0.61583    0.57748
 57 Mo   -0.00000   -0.93020    0.58066
 58 S     0.00000    0.49490   -0.79932
 59 S     0.00000    0.43845    0.78382
 60 Mo    0.00000   -0.72459    0.86412
 61 S     0.00000    0.16598   -0.97060
 62 S     0.00000    0.61583    0.57748
 63 Mo    0.00000   -0.93020    0.58066
 64 S    -0.00000    0.49490   -0.79932
 65 S     0.00000    0.43845    0.78382
 66 Mo   -0.00000   -0.72459    0.86412
 67 S    -0.00000    0.16598   -0.97060
 68 S    -0.00000    0.61583    0.57748
 69 Mo    0.00000   -0.93020    0.58066
 70 S     0.00000    0.49490   -0.79932
 71 S    -0.00000    0.43845    0.78382
 72 Mo    0.00000   -1.06713    0.26085
 73 S     0.00000    0.74167   -0.59012
 74 S    -0.00000    0.14565    0.72016
 75 Mo   -0.00000   -1.11935   -0.06175
 76 S     0.00000    0.94417   -0.42837
 77 S     0.00000   -0.09477    0.78349
 78 Mo    0.00000   -1.06713    0.26085
 79 S     0.00000    0.74167   -0.59012
 80 S    -0.00000    0.14565    0.72016
 81 Mo    0.00000   -1.11935   -0.06175
 82 S     0.00000    0.94417   -0.42837
 83 S     0.00000   -0.09477    0.78349
 84 Mo   -0.00000   -1.06713    0.26085
 85 S    -0.00000    0.74167   -0.59012
 86 S     0.00000    0.14565    0.72016
 87 Mo   -0.00000   -1.11935   -0.06175
 88 S    -0.00000    0.94417   -0.42837
 89 S    -0.00000   -0.09477    0.78349
 90 Mo    0.00000   -0.99988   -0.41389
 91 S     0.00000    0.95868   -0.12126
 92 S     0.00000   -0.36692    0.75567
 93 Mo   -0.00000   -0.86412   -0.72459
 94 S     0.00000    0.97060    0.16598
 95 S     0.00000   -0.57748    0.61583
 96 Mo    0.00000   -0.99988   -0.41389
 97 S     0.00000    0.95868   -0.12126
 98 S     0.00000   -0.36692    0.75567
 99 Mo    0.00000   -0.86412   -0.72459
100 S    -0.00000    0.97060    0.16598
101 S     0.00000   -0.57748    0.61583
102 Mo   -0.00000   -0.99988   -0.41389
103 S    -0.00000    0.95868   -0.12126
104 S    -0.00000   -0.36692    0.75567
105 Mo    0.00000   -0.86412   -0.72459
106 S     0.00000    0.97060    0.16598
107 S    -0.00000   -0.57748    0.61583
108 Mo    0.00000   -0.58066   -0.93020
109 S    -0.00000    0.79932    0.49490
110 S     0.00000   -0.78382    0.43845
111 Mo   -0.00000   -0.26085   -1.06713
112 S    -0.00000    0.59012    0.74167
113 S     0.00000   -0.72016    0.14565
114 Mo    0.00000   -0.58066   -0.93020
115 S     0.00000    0.79932    0.49490
116 S     0.00000   -0.78382    0.43845
117 Mo    0.00000   -0.26085   -1.06713
118 S     0.00000    0.59012    0.74167
119 S    -0.00000   -0.72016    0.14565
120 Mo   -0.00000   -0.58066   -0.93020
121 S     0.00000    0.79932    0.49490
122 S    -0.00000   -0.78382    0.43845
123 Mo    0.00000   -0.26085   -1.06713
124 S    -0.00000    0.59012    0.74167
125 S     0.00000   -0.72016    0.14565
126 Mo    0.00000    0.06175   -1.11935
127 S     0.00000    0.42837    0.94417
128 S     0.00000   -0.78349   -0.09477
129 Mo    0.00000    0.41389   -0.99988
130 S     0.00000    0.12126    0.95868
131 S     0.00000   -0.75567   -0.36692
132 Mo    0.00000    0.06175   -1.11935
133 S     0.00000    0.42837    0.94417
134 S     0.00000   -0.78349   -0.09477
135 Mo   -0.00000    0.41389   -0.99988
136 S     0.00000    0.12126    0.95868
137 S    -0.00000   -0.75567   -0.36692
138 Mo   -0.00000    0.06175   -1.11935
139 S    -0.00000    0.42837    0.94417
140 S    -0.00000   -0.78349   -0.09477
141 Mo    0.00000    0.41389   -0.99988
142 S    -0.00000    0.12126    0.95868
143 S     0.00000   -0.75567   -0.36692
144 Mo    0.00000    0.72459   -0.86412
145 S     0.00000   -0.16598    0.97060
146 S     0.00000   -0.61583   -0.57748
147 Mo   -0.00000    0.93020   -0.58066
148 S     0.00000   -0.49490    0.79932
149 S    -0.00000   -0.43845   -0.78382
150 Mo    0.00000    0.72459   -0.86412
151 S     0.00000   -0.16598    0.97060
152 S     0.00000   -0.61583   -0.57748
153 Mo    0.00000    0.93020   -0.58066
154 S    -0.00000   -0.49490    0.79932
155 S     0.00000   -0.43845   -0.78382
156 Mo   -0.00000    0.72459   -0.86412
157 S    -0.00000   -0.16598    0.97060
158 S    -0.00000   -0.61583   -0.57748
159 Mo    0.00000    0.93020   -0.58066
160 S     0.00000   -0.49490    0.79932
161 S    -0.00000   -0.43845   -0.78382
162 Mo    0.00000    1.06713   -0.26085
163 S     0.00000   -0.74167    0.59012
164 S    -0.00000   -0.14565   -0.72016
165 Mo   -0.00000    1.11935    0.06175
166 S     0.00000   -0.94417    0.42837
167 S     0.00000    0.09477   -0.78349
168 Mo    0.00000    1.06713   -0.26085
169 S     0.00000   -0.74167    0.59012
170 S    -0.00000   -0.14565   -0.72016
171 Mo    0.00000    1.11935    0.06175
172 S     0.00000   -0.94417    0.42837
173 S     0.00000    0.09477   -0.78349
174 Mo   -0.00000    1.06713   -0.26085
175 S    -0.00000   -0.74167    0.59012
176 S     0.00000   -0.14565   -0.72016
177 Mo    0.00000    1.11935    0.06175
178 S    -0.00000   -0.94417    0.42837
179 S    -0.00000    0.09477   -0.78349

Timing:                              incl.     excl.
-----------------------------------------------------------
Forces:                             36.684    36.684   0.4% |
Hamiltonian:                         0.958     0.000   0.0% |
 Atomic:                             0.222     0.002   0.0% |
  XC Correction:                     0.220     0.220   0.0% |
 Calculate atomic Hamiltonians:      0.028     0.028   0.0% |
 Communicate:                        0.097     0.097   0.0% |
 Hartree integrate/restrict:         0.016     0.016   0.0% |
 Initialize Hamiltonian:             0.000     0.000   0.0% |
 Poisson:                            0.335     0.014   0.0% |
  Communicate from 1D:               0.075     0.075   0.0% |
  Communicate from 2D:               0.062     0.062   0.0% |
  Communicate to 1D:                 0.049     0.049   0.0% |
  Communicate to 2D:                 0.097     0.097   0.0% |
  FFT 1D:                            0.009     0.009   0.0% |
  FFT 2D:                            0.030     0.030   0.0% |
 XC 3D grid:                         0.258     0.258   0.0% |
 vbar:                               0.002     0.002   0.0% |
LCAO initialization:                58.189     0.279   0.0% |
 LCAO eigensolver:                   4.820     0.010   0.0% |
  Calculate projections:             0.000     0.000   0.0% |
  DenseAtomicCorrection:             0.000     0.000   0.0% |
  Distribute overlap matrix:         2.385     2.385   0.0% |
  Orbital Layouts:                   2.409     2.409   0.0% |
  Potential matrix:                  0.002     0.002   0.0% |
  Sum over cells:                    0.014     0.014   0.0% |
 LCAO to grid:                      51.547    51.547   0.6% |
 Set positions (LCAO WFS):           1.543     0.925   0.0% |
  Basic WFS set positions:           0.049     0.049   0.0% |
  Basis functions set positions:     0.001     0.001   0.0% |
  P tci:                             0.001     0.001   0.0% |
  ST tci:                            0.116     0.116   0.0% |
  mktci:                             0.451     0.451   0.0% |
SCF-cycle:                        8690.543    81.380   0.9% |
 Davidson:                        8525.550   790.671   9.0% |---|
  Apply hamiltonian:               124.974   124.974   1.4% ||
  Subspace diag:                  1520.985     0.008   0.0% |
   calc_h_matrix:                  579.818   457.504   5.2% |-|
    Apply hamiltonian:             122.314   122.314   1.4% ||
   diagonalize:                     42.606    42.606   0.5% |
   rotate_psi:                     898.554   898.554  10.2% |---|
  calc. matrices:                 3761.847  3159.818  35.9% |-------------|
   Apply hamiltonian:              602.029   602.029   6.8% |--|
  diagonalize:                     523.228   523.228   6.0% |-|
  rotate_psi:                     1803.845  1803.845  20.5% |-------|
 Density:                           26.608     0.001   0.0% |
  Atomic density matrices:           1.022     1.022   0.0% |
  Mix:                               0.742     0.742   0.0% |
  Multipole moments:                 0.030     0.030   0.0% |
  Pseudo density:                   24.813     6.322   0.1% |
   Symmetrize density:              18.491    18.491   0.2% |
 Hamiltonian:                       31.555     0.006   0.0% |
  Atomic:                            7.800     0.093   0.0% |
   XC Correction:                    7.707     7.707   0.1% |
  Calculate atomic Hamiltonians:     0.997     0.997   0.0% |
  Communicate:                       3.563     3.563   0.0% |
  Hartree integrate/restrict:        0.678     0.678   0.0% |
  Poisson:                           9.027     0.269   0.0% |
   Communicate from 1D:              1.962     1.962   0.0% |
   Communicate from 2D:              1.939     1.939   0.0% |
   Communicate to 1D:                1.714     1.714   0.0% |
   Communicate to 2D:                1.894     1.894   0.0% |
   FFT 1D:                           0.337     0.337   0.0% |
   FFT 2D:                           0.912     0.912   0.0% |
  XC 3D grid:                        9.428     9.428   0.1% |
  vbar:                              0.056     0.056   0.0% |
 Orthonormalize:                    25.450     0.000   0.0% |
  calc_s_matrix:                     6.212     6.212   0.1% |
  inverse-cholesky:                  6.455     6.455   0.1% |
  projections:                       0.000     0.000   0.0% |
  rotate_psi_s:                     12.783    12.783   0.1% |
Set symmetry:                        0.003     0.003   0.0% |
Other:                               3.900     3.900   0.0% |
-----------------------------------------------------------
Total:                                      8790.278 100.0%

Memory usage: 2.96 GiB
Date: Mon Apr  5 23:07:20 2021
