
  ___ ___ ___ _ _ _  
 |   |   |_  | | | | 
 | | | | | . | | | | 
 |__ |  _|___|_____|  21.1.0
 |___|_|             

User:   schinniah@gpu01
Date:   Mon Apr  5 23:14:06 2021
Arch:   x86_64
Pid:    119818
Python: 3.7.7
gpaw:   /home/witsteam1/apps/intel/intelpython3/lib/python3.7/site-packages/gpaw
_gpaw:  /home/witsteam1/apps/intel/intelpython3/lib/python3.7/site-packages/
        _gpaw.cpython-37m-x86_64-linux-gnu.so
ase:    /home/witsteam1/apps/intel/intelpython3/lib/python3.7/site-packages/ase (version 3.21.1)
numpy:  /home/witsteam1/apps/intel/intelpython3/lib/python3.7/site-packages/numpy (version 1.18.5)
scipy:  /home/witsteam1/apps/intel/intelpython3/lib/python3.7/site-packages/scipy (version 1.4.1)
libxc:  4.3.4
units:  Angstrom and eV
cores: 56
OpenMP: False
OMP_NUM_THREADS: 1

Input parameters:
  convergence: {bands: -4}
  eigensolver: {name: dav,
                niter: 2}
  kpts: {density: 12,
         gamma: True}
  mode: {ecut: 1200.0,
         gammacentered: False,
         name: pw}
  occupations: {fixmagmom: False,
                name: fermi-dirac,
                width: 0.01}
  setups: {Ru: :d,4.0}
  xc: PBE

System changes: positions, numbers, cell, pbc, initial_charges, initial_magmoms 

Initialize ...

Ru-setup:
  name: Ruthenium
  id: 670232e5f51aeb2542f664849653fb2d
  Z: 44.0
  valence: 16
  core: 28
  charge: 0.0
  Hubbard U: 4.000000 eV (l=2, scale=True)
  file: /home/schinniah/isc21-scc/GPAW/tests/test1/gpaw-setups/gpaw-setups-0.9.20000/Ru.PBE.gz
  compensation charges: gauss, rc=0.39, lmax=2
  cutoffs: 2.16(filt), 1.30(core),
  valence states:
                energy  radius
    4s(2.00)   -76.316   1.281
    5s(1.00)    -4.236   1.281
    4p(6.00)   -46.423   1.286
    5p(0.00)    -0.913   1.286
    4d(7.00)    -5.203   1.254
    *d          22.008   1.254

  Using partial waves for Ru as LCAO basis

Cl-setup:
  name: Chlorine
  id: 726897f06f34e53cf8e33b5885a02604
  Z: 17.0
  valence: 7
  core: 10
  charge: 0.0
  file: /home/schinniah/isc21-scc/GPAW/tests/test1/gpaw-setups/gpaw-setups-0.9.20000/Cl.PBE.gz
  compensation charges: gauss, rc=0.25, lmax=2
  cutoffs: 1.40(filt), 1.49(core),
  valence states:
                energy  radius
    3s(2.00)   -20.689   0.794
    3p(5.00)    -8.594   0.794
    *s           6.523   0.794
    *p          18.617   0.794
    *d           0.000   0.794

  Using partial waves for Cl as LCAO basis

Reference energy: -321819.946340

Spin-polarized calculation.
Magnetic moment: 0.000000

Convergence criteria:
  Maximum total energy change: 0.0005 eV / electron
  Maximum integral of absolute density change: 0.0001 electrons
  Maximum integral of absolute eigenstate change: 4e-08 eV^2
  Maximum number of iterations: 333

Symmetries present (total): 12

  ( 1  1  0)  ( 1  1  0)  ( 1  0  0)  ( 1  0  0)  ( 0  1  0)  ( 0  1  0)
  ( 0 -1  0)  (-1  0  0)  ( 0  1  0)  (-1 -1  0)  ( 1  0  0)  (-1 -1  0)
  ( 0  0 -1)  ( 0  0 -1)  ( 0  0  1)  ( 0  0  1)  ( 0  0  1)  ( 0  0  1)

  ( 0 -1  0)  ( 0 -1  0)  (-1  0  0)  (-1  0  0)  (-1 -1  0)  (-1 -1  0)
  ( 1  1  0)  (-1  0  0)  ( 1  1  0)  ( 0 -1  0)  ( 1  0  0)  ( 0  1  0)
  ( 0  0 -1)  ( 0  0 -1)  ( 0  0 -1)  ( 0  0 -1)  ( 0  0  1)  ( 0  0  1)

3150 k-points: 15 x 15 x 14 Monkhorst-Pack grid + [0.000000,0.000000,1/28]
330 k-points in the irreducible part of the Brillouin zone
       k-points in crystal coordinates                weights
   0:     0.00000000    0.00000000    0.00000000          1/3150
   1:     0.00000000    0.00000000    0.07142857          2/3150
   2:     0.00000000    0.00000000    0.14285714          2/3150
   3:     0.00000000    0.00000000    0.21428571          2/3150
   4:     0.00000000    0.00000000    0.28571429          2/3150
   5:     0.00000000    0.00000000    0.35714286          2/3150
   6:     0.00000000    0.00000000    0.42857143          2/3150
   7:     0.00000000    0.00000000    0.50000000          1/3150
   8:     0.06666667    0.00000000    0.00000000          6/3150
   9:     0.06666667    0.00000000    0.07142857         12/3150
          ...
 329:     0.46666667    0.46666667    0.50000000          6/3150

Wave functions: Plane wave expansion
  Cutoff energy: 1200.000 eV
  Number of coefficients (min, max): 17268, 17378
  Pulay-stress correction: 0.000000 eV/Ang^3 (de/decut=0.000000)
  Using Numpy's FFT
  ScaLapack parameters: grid=1x1, blocksize=None
  Wavefunction extrapolation:
    Improved wavefunction reuse through dual PAW basis 

  Fermi-Dirac: width=0.0100 eV

Eigensolver
   Davidson(niter=2, smin=None, normalize=True) 

Densities:
  Coarse grid: 49*49*48 grid
  Fine grid: 98*98*96 grid
  Total Charge: 0.000000 

Density mixing:
  Method: difference
  Backend: pulay
  Linear mixing parameter: 0.05
  Mixing with 5 old densities
  Damping of long wave oscillations: 50 

Hamiltonian:
  XC and Coulomb potentials evaluated on a 98*98*96 grid
  Using the PBE Exchange-Correlation functional
 

XC parameters: PBE with 2 nearest neighbor stencil

Memory estimate:
  Process memory now: 264.15 MiB
  Calculator: 253.91 MiB
    Density: 66.07 MiB
      Arrays: 30.77 MiB
      Localized functions: 22.98 MiB
      Mixer: 12.31 MiB
    Hamiltonian: 23.42 MiB
      Arrays: 22.86 MiB
      XC: 0.00 MiB
      Poisson: 0.00 MiB
      vbar: 0.56 MiB
    Wavefunctions: 164.41 MiB
      Arrays psit_nG: 129.93 MiB
      Eigensolver: 14.69 MiB
      Projections: 0.85 MiB
      Projectors: 13.22 MiB
      PW-descriptor: 5.72 MiB

Total number of cores used: 56
Parallelization over k-points: 56
Domain decomposition: 1 x 1 x 1
                      7 x 4 x 2 (xc only)

Number of atoms: 8
Number of atomic orbitals: 50
Number of bands in calculation: 49
Number of valence electrons: 74
Bands to converge: 45

... initialized

Initializing position-dependent things.

Density initialized from atomic densities
Creating initial wave functions:
  49 bands from LCAO basis set

                                   
                                   
                                   
                                   
          Cl                       
                Cl                 
                       Cl          
                    Cl             
             Ru                    
           Cl                      
                 Cl                
             Ru                    
                                   
                                   
                                   
                                   

Positions:
   0 Ru     0.000000    0.000000    2.829000    ( 0.0000,  0.0000, -1.0000)
   1 Ru     0.000000    0.000000    0.000000    ( 0.0000,  0.0000,  1.0000)
   2 Cl     2.132820    3.694153    1.414500    ( 0.0000,  0.0000,  0.0000)
   3 Cl     1.854360    0.000000    1.414500    ( 0.0000,  0.0000,  0.0000)
   4 Cl    -0.927180    1.605923    1.414500    ( 0.0000,  0.0000,  0.0000)
   5 Cl     0.927180    1.605923    4.243500    ( 0.0000,  0.0000,  0.0000)
   6 Cl     4.265640    0.000000    4.243500    ( 0.0000,  0.0000,  0.0000)
   7 Cl    -2.132820    3.694153    4.243500    ( 0.0000,  0.0000,  0.0000)

Unit cell:
           periodic     x           y           z      points  spacing
  1. axis:    yes    6.120000    0.000000    0.000000    49     0.1082
  2. axis:    yes   -3.060000    5.300075    0.000000    49     0.1082
  3. axis:    yes    0.000000    0.000000    5.658000    48     0.1179

  Lengths:   6.120000   6.120000   5.658000
  Angles:   90.000000  90.000000 120.000000

Effective grid spacing dv^(1/3) = 0.1168

                     log10-error:    total        iterations:
           time      wfs    density  energy       poisson  magmom
iter:   1  23:16:04  +0.65          -26.915874             +0.0000
iter:   2  23:16:34  -0.21  -1.35   -26.693054             -0.0000
iter:   3  23:17:03  -0.70  -1.39   -26.493473             +0.0000
iter:   4  23:17:33  -1.19  -1.47   -26.814056             -0.0000
iter:   5  23:18:02  -1.67  -1.50   -27.363656             +0.0000
iter:   6  23:18:32  -1.43  -1.64   -28.394366             +0.0000
iter:   7  23:19:01  -2.21  -2.08   -28.387175             +0.0000
iter:   8  23:19:31  -2.04  -2.19   -28.487910             +0.0000
iter:   9  23:20:00  -2.77  -2.38   -28.461873             +0.0000
iter:  10  23:20:30  -3.37  -2.55   -28.463070             +0.0000
iter:  11  23:21:00  -3.17  -2.58   -28.472451             +0.0000
iter:  12  23:21:29  -3.59  -2.91   -28.475310             -0.0000
iter:  13  23:21:59  -3.96  -3.29   -28.475720             -0.0000
iter:  14  23:22:28  -4.36  -3.37   -28.475328             -0.0000
iter:  15  23:22:58  -4.76  -3.45   -28.475367             +0.0000
iter:  16  23:23:52  -4.96  -3.54   -28.475475             +0.0000
iter:  17  23:24:22  -5.18  -3.63   -28.475515             +0.0000
iter:  18  23:24:51  -5.37  -3.73   -28.475524             +0.0000
iter:  19  23:25:21  -5.33  -3.79   -28.475573             +0.0000
iter:  20  23:25:50  -5.61  -3.94   -28.475584             +0.0000
iter:  21  23:26:19  -5.86  -3.99   -28.475595             +0.0000
iter:  22  23:26:49  -6.06  -4.09   -28.475602             -0.0000
iter:  23  23:27:19  -6.04  -4.18   -28.475604             +0.0000
iter:  24  23:27:48  -6.22  -4.27   -28.475604             +0.0000
iter:  25  23:28:18  -6.38  -4.31   -28.475611             +0.0001
iter:  26  23:28:47  -6.62  -4.41   -28.475613             +0.0001
iter:  27  23:29:17  -6.78  -4.41   -28.475615             +0.0001
iter:  28  23:29:46  -6.84  -4.44   -28.475619             +0.0000
iter:  29  23:30:16  -6.85  -4.54   -28.475620             +0.0001
iter:  30  23:30:46  -7.05  -4.57   -28.475620             +0.0001
iter:  31  23:31:16  -7.21  -4.64   -28.475621             +0.0001
iter:  32  23:31:45  -7.19  -4.67   -28.475623             +0.0000
iter:  33  23:32:15  -7.41  -4.92   -28.475624             +0.0000

Converged after 33 iterations.

Dipole moment: (-0.000000, 0.000000, -0.000000) |e|*Ang

Total magnetic moment: (0.000000, 0.000000, 0.000048)
Local magnetic moments:
   0 Ru ( 0.000000,  0.000000,  0.000022)
   1 Ru ( 0.000000,  0.000000,  0.000010)
   2 Cl ( 0.000000,  0.000000,  0.000001)
   3 Cl ( 0.000000,  0.000000,  0.000001)
   4 Cl ( 0.000000,  0.000000,  0.000001)
   5 Cl ( 0.000000,  0.000000,  0.000001)
   6 Cl ( 0.000000,  0.000000,  0.000001)
   7 Cl ( 0.000000,  0.000000,  0.000001)

Energy contributions relative to reference atoms: (reference = -321819.946340)

Kinetic:        +51.849613
Potential:      -51.632291
External:        +0.000000
XC:             -28.206802
Entropy (-ST):   -0.000749
Local:           -0.485769
--------------------------
Free energy:    -28.475998
Extrapolated:   -28.475624

Spin contamination: 0.000087 electrons
Showing only first 2 kpts
                      Up                     Down
 Kpt  Band  Eigenvalues  Occupancy  Eigenvalues  Occupancy
  0    35      2.42381    0.00032      2.42382    0.00032
  0    36      2.42413    0.00032      2.42414    0.00032
  0    37      3.87593    0.00000      3.87604    0.00000
  0    38      5.16416    0.00000      5.16416    0.00000

  1    35      2.41866    0.00063      2.41866    0.00063
  1    36      2.41897    0.00063      2.41898    0.00063
  1    37      3.82551    0.00000      3.82561    0.00000
  1    38      5.19542    0.00000      5.19543    0.00000


Fermi level: 2.62211

No gap
Writing to Ru2Cl6-benchmark.gpw (mode='')

Timing:                              incl.     excl.
-----------------------------------------------------------
Hamiltonian:                         1.138     0.015   0.0% |
 Atomic:                             0.234     0.234   0.0% |
  XC Correction:                     0.000     0.000   0.0% |
 Calculate atomic Hamiltonians:      0.184     0.184   0.0% |
 Communicate:                        0.001     0.001   0.0% |
 Initialize Hamiltonian:             0.001     0.001   0.0% |
 Poisson:                            0.006     0.006   0.0% |
 XC 3D grid:                         0.697     0.697   0.1% |
LCAO initialization:                71.630     0.272   0.0% |
 LCAO eigensolver:                  26.428     0.002   0.0% |
  Calculate projections:             0.003     0.003   0.0% |
  DenseAtomicCorrection:             0.007     0.007   0.0% |
  Distribute overlap matrix:         0.001     0.001   0.0% |
  Orbital Layouts:                   0.013     0.013   0.0% |
  Potential matrix:                 26.375    26.375   2.4% ||
  Sum over cells:                    0.027     0.027   0.0% |
 LCAO to grid:                      44.396    44.396   4.1% |-|
 Set positions (LCAO WFS):           0.534     0.076   0.0% |
  Basic WFS set positions:           0.005     0.005   0.0% |
  Basis functions set positions:     0.000     0.000   0.0% |
  P tci:                             0.195     0.195   0.0% |
  ST tci:                            0.173     0.173   0.0% |
  mktci:                             0.085     0.085   0.0% |
PWDescriptor:                        0.057     0.057   0.0% |
SCF-cycle:                        1011.794   187.498  17.1% |------|
 Davidson:                         695.370    95.221   8.7% |--|
  Apply H:                         127.482   124.208  11.4% |----|
   HMM T:                            3.274     3.274   0.3% |
  Subspace diag:                   146.471     0.084   0.0% |
   calc_h_matrix:                  132.839     6.116   0.6% |
    Apply H:                       126.723   123.345  11.3% |----|
     HMM T:                          3.378     3.378   0.3% |
   diagonalize:                      0.439     0.439   0.0% |
   rotate_psi:                      13.109    13.109   1.2% |
  calc. matrices:                  295.269    44.558   4.1% |-|
   Apply H:                        250.711   244.271  22.3% |--------|
    HMM T:                           6.440     6.440   0.6% |
  diagonalize:                       2.774     2.774   0.3% |
  rotate_psi:                       28.153    28.153   2.6% ||
 Density:                          103.617     0.001   0.0% |
  Atomic density matrices:           0.707     0.707   0.1% |
  Mix:                              13.450    13.450   1.2% |
  Multipole moments:                 0.014     0.014   0.0% |
  Pseudo density:                   89.446    81.008   7.4% |--|
   Symmetrize density:               8.438     8.438   0.8% |
 Hamiltonian:                       24.519     0.422   0.0% |
  Atomic:                            7.093     7.093   0.6% |
   XC Correction:                    0.000     0.000   0.0% |
  Calculate atomic Hamiltonians:     5.776     5.776   0.5% |
  Communicate:                       0.010     0.010   0.0% |
  Poisson:                           0.210     0.210   0.0% |
  XC 3D grid:                       11.007    11.007   1.0% |
 Orthonormalize:                     0.790     0.002   0.0% |
  calc_s_matrix:                     0.109     0.109   0.0% |
  inverse-cholesky:                  0.005     0.005   0.0% |
  projections:                       0.482     0.482   0.0% |
  rotate_psi_s:                      0.192     0.192   0.0% |
Set symmetry:                        0.177     0.177   0.0% |
Other:                               9.011     9.011   0.8% |
-----------------------------------------------------------
Total:                                      1093.806 100.0%

Memory usage: 1.05 GiB
Date: Mon Apr  5 23:32:20 2021
